/*--------------------------------*- C++ -*----------------------------------*\
| =========                 |                                                 |
| \\      /  F ield         | OpenFOAM: The Open Source CFD Toolbox           |
|  \\    /   O peration     | Version:  3.0.1                                 |
|   \\  /    A nd           | Web:      www.OpenFOAM.org                      |
|    \\/     M anipulation  |                                                 |
\*---------------------------------------------------------------------------*/
FoamFile
{
    version     2.0;
    format      ascii;
    class       volScalarField;
    object      p_rgh;
}
// * * * * * * * * * * * * * * * * * * * * * * * * * * * * * * * * * * * * * //

dimensions      [0 0 0 1 0 0 0];

// Tliq = 1723 1928.15
internalField   uniform 1700;

boundaryField
{
	frontAndBack{
type zeroGradient;
	}

    lowerWall
    {
type zeroGradient;
    }

    atmosphere
    {
type zeroGradient;
    }

    leftWall{
         type empty;
    }
    rightWall{
         type empty;
    }
}

// ************************************************************************* //
